
19531 atoms
13266 bonds
7515 angles
2156 dihedrals
60 impropers
33 atom types
43 bond types
84 angle types
162 dihedral types
6 improper types
-31.000000 31.000000 xlo xhi
-31.000000 31.000000 ylo yhi
-31.000000 31.000000 zlo zhi

Pair Coeffs

1 0.046000 0.400014 # 2.395219
2 0.046000 0.400014 # 2.395219
3 0.046000 1.959977 # 9.352442
4 0.046000 0.400014 # 2.395219
5 0.022000 2.351973 # 9.840847
6 0.028000 2.387609 # 10.317930
7 0.200000 3.296325 # 18.014892
8 0.200000 3.296325 # 18.014892
9 0.200000 3.296325 # 18.014892
10 0.200000 3.296325 # 18.014892
11 0.200000 3.296325 # 18.014892
12 0.200000 3.296325 # 18.014892
13 0.200000 3.296325 # 18.014892
14 0.120000 3.029056 # 15.576228
15 0.120000 3.029056 # 15.576228
16 0.152100 3.153781 # 16.679768
17 0.120000 3.029056 # 15.576228
18 0.152100 3.153781 # 16.679768
19 0.152100 3.153781 # 16.679768
20 0.100000 3.385415 # 16.693780
21 0.100000 3.385415 # 16.693780
22 0.090000 3.385415 # 16.444395
23 0.075000 3.385415 # 16.021615
24 0.075000 3.385415 # 16.021615
25 0.075000 3.385415 # 16.021615
26 0.020000 4.053589 0.010000 3.385415 # 15.479404
27 0.020000 4.053589 0.010000 3.385415 # 15.479404
28 0.056000 3.581413 0.010000 3.385415 # 16.126207
29 0.056000 3.581413 0.010000 3.385415 # 16.126207
30 0.585000 3.830864 # 23.887130
31 0.087439 2.439281 # 12.365528
32 0.152100 3.150574 # 16.665228
33 0.046000 0.400000 # 2.395150

Bond Coeffs

1 302.000000 1.360000
2 380.000000 1.367000
3 340.000000 1.396000
4 350.000000 1.335000
5 660.000000 1.234000
6 620.000000 1.245000
7 320.000000 1.406000
8 360.000000 1.366000
9 400.000000 1.392000
10 450.000000 1.343000
11 320.000000 1.326000
12 500.000000 1.326000
13 350.000000 1.090000
14 302.000000 1.343000
15 380.000000 1.090000
16 300.000000 1.378000
17 400.000000 1.305000
18 320.000000 1.350000
19 302.000000 1.375000
20 350.000000 1.315000
21 310.000000 1.365000
22 488.000000 1.000000
23 471.000000 1.010000
24 270.000000 1.600000
25 580.000000 1.480000
26 260.000000 1.420000
27 200.000000 1.518000
28 240.000000 1.446000
29 222.500000 1.529000
30 222.500000 1.516000
31 309.000000 1.111000
32 309.000000 1.111000
33 309.000000 1.111000
34 222.500000 1.512000
35 320.000000 1.440000
36 428.000000 1.420000
37 310.000000 1.433000
38 428.000000 1.420000
39 220.000000 1.456000
40 220.000000 1.458000
41 309.000000 1.111000
42 545.000000 0.960000
43 450.000000 0.957200

Angle Coeffs

1 harmonic 40.000000 121.500000
2 harmonic 31.000000 117.000000
3 harmonic 39.000000 124.800000
4 harmonic 70.000000 131.100000
5 harmonic 70.000000 122.200000
6 harmonic 90.000000 109.400000
7 harmonic 70.000000 129.900000
8 harmonic 70.000000 119.600000
9 harmonic 70.000000 107.800000
10 harmonic 100.000000 104.600000
11 harmonic 100.000000 111.400000
12 harmonic 120.000000 103.800000
13 harmonic 100.000000 113.000000
14 harmonic 100.000000 107.200000
15 harmonic 140.000000 125.500000
16 harmonic 125.000000 129.000000
17 harmonic 45.000000 113.300000
18 harmonic 45.000000 115.600000
19 harmonic 95.000000 115.400000
20 harmonic 95.000000 122.400000
21 harmonic 50.000000 127.500000
22 harmonic 50.000000 124.700000
23 harmonic 40.000000 122.200000
24 harmonic 50.000000 124.100000
25 harmonic 50.000000 116.800000
26 harmonic 85.000000 119.100000
27 harmonic 85.000000 119.300000
28 harmonic 85.000000 117.800000
29 harmonic 85.000000 122.900000
30 harmonic 130.000000 119.400000
31 harmonic 130.000000 123.800000
32 harmonic 81.000000 122.300000
33 harmonic 81.000000 118.400000
34 harmonic 38.000000 120.100000
35 harmonic 38.000000 122.100000
36 harmonic 44.000000 115.000000
37 harmonic 45.000000 120.000000
38 harmonic 45.000000 115.900000
39 harmonic 45.000000 126.500000
40 harmonic 45.000000 126.300000
41 harmonic 110.000000 108.000000
42 harmonic 110.000000 113.700000
43 harmonic 110.000000 108.000000
44 harmonic 110.000000 113.700000
45 harmonic 43.000000 111.000000
46 harmonic 43.000000 111.000000
47 harmonic 80.000000 104.300000
48 harmonic 110.000000 108.000000
49 harmonic 90.000000 102.000000
50 harmonic 80.000000 100.000000
51 charmm 60.000000 102.000000 8.000000 2.561000
52 harmonic 100.000000 104.000000
53 harmonic 45.200000 107.240000
54 harmonic 45.200000 107.240000
55 harmonic 40.000000 108.000000
56 charmm 33.400000 110.100000 22.530000 2.179000
57 charmm 33.400000 110.100000 22.530000 2.179000
58 charmm 34.500000 110.100000 22.530000 2.179000
59 charmm 34.530000 110.100000 22.530000 2.179000
60 charmm 35.500000 109.000000 5.400000 1.802000
61 harmonic 90.000000 108.200000
62 harmonic 45.000000 110.000000
63 harmonic 70.000000 108.400000
64 harmonic 115.000000 109.700000
65 harmonic 115.000000 109.700000
66 charmm 20.000000 120.000000 35.000000 2.330000
67 charmm 20.000000 120.000000 35.000000 2.330000
68 charmm 34.500000 110.100000 22.530000 2.179000
69 harmonic 60.000000 109.500000
70 harmonic 57.500000 106.000000
71 charmm 35.500000 109.000000 5.400000 1.802000
72 charmm 34.530000 110.100000 22.530000 2.179000
73 harmonic 60.000000 109.500000
74 harmonic 75.700000 110.100000
75 harmonic 45.900000 108.890000
76 harmonic 75.700000 110.000000
77 harmonic 75.700000 110.100000
78 harmonic 60.000000 109.500000
79 harmonic 57.500000 109.000000
80 harmonic 98.900000 111.600000
81 harmonic 120.000000 120.000000
82 harmonic 55.000000 104.520000
83 tbaserestr 1.08859 -8.07307 0.095917 1.848169
84 tbaserestr 1.06395 -4.76673 0.095917 1.848169

Dihedral Coeffs

1 0.900000 1 180 1.000000
2 0.400000 2 180 0.000000
3 0.200000 3 180 0.000000
4 1.200000 1 180 1.000000
5 0.100000 2 180 0.000000
6 0.100000 3 180 0.000000
7 0.000000 6 0 0.000000
8 0.100000 3 0 1.000000
9 0.100000 3 0 1.000000
10 0.000000 3 0 1.000000
11 0.000000 3 0 1.000000
12 3.000000 2 180 1.000000
13 0.600000 2 180 0.500000
14 0.600000 2 180 0.500000
15 6.000000 2 180 0.500000
16 0.600000 2 180 0.500000
17 6.000000 2 180 0.500000
18 0.600000 2 180 0.500000
19 1.000000 2 180 1.000000
20 1.000000 2 180 1.000000
21 2.000000 2 180 1.000000
22 2.000000 2 180 1.000000
23 2.000000 2 180 1.000000
24 1.600000 2 180 1.000000
25 1.600000 2 180 1.000000
26 3.400000 2 180 1.000000
27 3.400000 2 180 1.000000
28 4.600000 2 180 1.000000
29 4.600000 2 180 1.000000
30 0.200000 2 180 0.500000
31 2.000000 2 180 0.500000
32 0.200000 2 180 0.500000
33 2.000000 2 180 0.500000
34 0.200000 2 180 0.500000
35 0.200000 2 180 0.500000
36 6.000000 2 180 0.000000
37 16.000000 2 180 0.000000
38 6.000000 2 180 0.000000
39 6.000000 2 180 0.000000
40 10.000000 2 180 0.000000
41 14.000000 2 180 1.000000
42 0.000000 2 180 1.000000
43 14.000000 2 180 1.000000
44 0.000000 2 180 1.000000
45 4.000000 2 180 1.000000
46 4.000000 2 180 1.000000
47 0.000000 2 180 1.000000
48 1.200000 2 180 1.000000
49 1.200000 2 180 1.000000
50 3.600000 2 180 1.000000
51 3.600000 2 180 1.000000
52 5.600000 2 180 1.000000
53 5.600000 2 180 1.000000
54 10.000000 2 180 1.000000
55 2.000000 2 180 1.000000
56 2.000000 2 180 1.000000
57 2.000000 2 180 1.000000
58 2.000000 2 180 1.000000
59 0.300000 2 180 1.000000
60 11.000000 2 180 1.000000
61 11.000000 2 180 1.000000
62 11.000000 2 180 1.000000
63 0.000000 3 0 1.000000
64 1.000000 1 0 1.000000
65 1.000000 3 0 1.000000
66 0.000000 3 180 1.000000
67 0.000000 3 0 1.000000
68 0.195000 3 0 1.000000
69 0.300000 2 180 1.000000
70 11.000000 2 180 1.000000
71 11.000000 2 180 1.000000
72 11.000000 2 180 1.000000
73 0.200000 3 0 1.000000
74 1.100000 1 180 0.000000
75 1.400000 1 0 1.000000
76 0.000000 3 0 1.000000
77 0.000000 3 180 1.000000
78 0.000000 3 0 1.000000
79 0.195000 3 0 1.000000
80 0.000000 3 0 1.000000
81 0.000000 3 0 1.000000
82 0.000000 3 0 1.000000
83 0.000000 3 0 1.000000
84 0.000000 3 0 1.000000
85 0.000000 3 0 1.000000
86 0.200000 1 120 1.000000
87 1.330000 1 0 1.000000
88 0.180000 2 0 0.000000
89 0.320000 3 0 0.000000
90 0.000000 3 0 1.000000
91 0.200000 4 180 1.000000
92 0.800000 3 180 0.000000
93 0.400000 2 0 0.000000
94 2.500000 1 180 0.000000
95 0.200000 4 180 1.000000
96 0.800000 3 180 0.000000
97 0.400000 2 0 0.000000
98 2.500000 1 180 0.000000
99 3.400000 1 180 1.000000
100 3.400000 1 180 1.000000
101 0.195000 3 0 1.000000
102 0.195000 1 0 1.000000
103 0.195000 3 0 1.000000
104 0.195000 3 0 1.000000
105 0.500000 4 180 1.000000
106 0.200000 4 0 1.000000
107 0.800000 3 180 0.000000
108 0.200000 4 0 1.000000
109 0.800000 3 180 0.000000
110 0.500000 6 0 1.000000
111 0.300000 5 0 0.000000
112 0.600000 4 180 0.000000
113 0.200000 3 0 0.000000
114 0.500000 6 0 1.000000
115 0.300000 5 0 0.000000
116 0.600000 4 180 0.000000
117 0.200000 3 0 0.000000
118 0.800000 3 0 1.000000
119 0.800000 6 0 1.000000
120 0.400000 5 0 0.000000
121 2.000000 3 180 0.000000
122 0.800000 6 0 1.000000
123 0.400000 5 0 0.000000
124 2.000000 3 180 0.000000
125 0.195000 3 0 1.000000
126 0.195000 3 180 1.000000
127 0.195000 3 0 1.000000
128 0.195000 3 0 1.000000
129 0.600000 5 0 1.000000
130 0.200000 4 0 0.000000
131 0.000000 3 180 0.000000
132 0.400000 2 0 0.000000
133 1.900000 1 180 0.000000
134 1.900000 1 180 1.000000
135 0.500000 3 0 1.000000
136 0.300000 2 180 0.000000
137 1.500000 1 0 0.000000
138 0.500000 3 0 1.000000
139 1.000000 2 180 0.000000
140 0.300000 1 0 0.000000
141 0.000000 3 0 1.000000
142 0.195000 3 0 1.000000
143 0.195000 3 0 1.000000
144 0.600000 6 180 0.000000
145 1.000000 4 0 0.000000
146 0.300000 5 180 0.000000
147 0.300000 6 180 0.000000
148 0.600000 6 0 0.000000
149 0.400000 6 0 0.000000
150 0.600000 6 180 0.000000
151 0.000000 3 0 1.000000
152 0.195000 3 0 1.000000
153 0.195000 3 0 1.000000
154 0.195000 3 180 1.000000
155 0.195000 3 0 1.000000
156 0.195000 3 0 1.000000
157 0.195000 3 0 1.000000
158 0.195000 3 0 1.000000
159 0.195000 3 0 1.000000
160 0.195000 3 0 1.000000
161 0.000000 3 0 1.000000
162 0.000000 2 180 1.000000

Improper Coeffs

1 6.000000 0.000000
2 90.000000 0.000000
3 40.000000 0.000000
4 60.000000 0.000000
5 4.000000 0.000000
6 80.000000 0.000000

Masses

1	1.008000
2	1.008000
3	1.008000
4	1.008000
5	1.008000
6	1.008000
7	14.007000
8	14.007000
9	14.007000
10	14.007000
11	14.007000
12	14.007000
13	14.007000
14	15.999400
15	15.999400
16	15.999400
17	15.999400
18	15.999400
19	15.999400
20	12.011000
21	12.011000
22	12.011000
23	12.011000
24	12.011000
25	12.011000
26	12.011000
27	12.011000
28	12.011000
29	12.011000
30	30.974000
31	22.990000
32	15.999400
33	1.008000

Atoms

1 1 4 0.43 13.495995 58.544853 28.730936
2 1 18 -0.66 13.917776 57.986441 29.388109
3 1 29 0.05 13.417145 58.425383 30.592398
4 1 6 0.09 12.732366 59.253776 30.311034
5 1 6 0.09 14.289034 58.710051 31.219371
6 1 26 0.16 12.670742 57.392599 31.385836
7 1 5 0.09 12.163375 57.887576 32.241347
8 1 19 -0.5 11.617945 56.712765 30.578293
9 1 27 0.16 11.496549 55.364797 31.007349
10 1 5 0.09 10.410362 55.262975 31.217478
11 1 8 -0.13 11.830264 54.38212 29.810964
12 1 22 0.05 12.75859 54.799872 28.829249
13 1 3 0.17 13.111743 55.827301 28.917485
14 1 22 -0.13 13.187241 54.019687 27.781554
15 1 3 0.07 13.980374 54.304106 27.090067
16 1 21 0.65 12.64626 52.758265 27.732804
17 1 7 -0.75 13.095614 51.827825 26.753807
18 1 1 0.37 13.58474 52.209749 25.969654
19 1 1 0.33 12.527546 51.013928 26.631857
20 1 11 -0.66 11.672876 52.309191 28.577486
21 1 20 0.52 11.354113 53.050795 29.648911
22 1 15 -0.49 10.659182 52.600377 30.539012
23 1 26 0.01 13.476186 56.255636 31.927312
24 1 5 0.09 14.044133 55.855664 31.060259
25 1 28 -0.18 12.353557 55.364105 32.245241
26 1 6 0.09 12.70019 54.33921 32.497744
27 1 6 0.09 11.74375 55.81361 33.057895
28 1 16 -0.57 14.176784 56.638025 33.140404
29 2 30 1.5 15.434814 55.639729 33.361331
30 2 17 -0.78 16.114263 56.091855 34.634
31 2 17 -0.78 16.330926 55.535024 32.123787
32 2 16 -0.57 14.746547 54.264247 33.644543
33 2 29 -0.08 14.283116 54.053346 34.978589
34 2 6 0.09 13.698835 54.902389 35.393396
35 2 6 0.09 15.088859 53.967707 35.738698
36 2 26 0.16 13.565814 52.703769 35.060984
37 2 5 0.09 12.967291 52.73797 35.996356
38 2 19 -0.5 12.690429 52.346151 33.968147
39 2 27 0.16 12.770354 50.992076 33.643217
40 2 5 0.09 11.724042 50.618909 33.660503
41 2 8 -0.13 13.440446 50.735476 32.336547
42 2 22 0.05 14.185728 51.72477 31.73315
43 2 3 0.17 14.295359 52.686752 32.233829
44 2 22 -0.13 14.791829 51.571631 30.574201
45 2 3 0.07 15.395927 52.382006 30.166207
46 2 21 0.65 14.566208 50.352379 29.887772
47 2 7 -0.75 15.208772 50.145275 28.716113
48 2 1 0.37 15.023589 49.245223 28.321626
49 2 1 0.33 15.62322 50.911524 28.225099
50 2 11 -0.66 13.810027 49.356124 30.468087
51 2 20 0.52 13.259335 49.511777 31.647773
52 2 15 -0.49 12.620769 48.647482 32.188063
53 2 26 0.01 14.599569 51.525481 35.005935
54 2 5 0.09 15.236898 51.578353 34.097454
55 2 28 -0.18 13.625492 50.372619 34.768072
56 2 6 0.09 14.068872 49.390669 34.496939
57 2 6 0.09 12.944493 50.11726 35.607924
58 2 16 -0.57 15.282606 51.431005 36.286258
59 3 30 1.5 16.675889 50.818211 36.549499
60 3 17 -0.78 17.212114 51.174807 37.874333
61 3 17 -0.78 17.607322 51.172729 35.444354
62 3 16 -0.57 16.589047 49.266981 36.385893
63 3 29 -0.08 16.097602 48.392507 37.309093
64 3 6 0.09 15.055867 48.66353 37.58415
65 3 6 0.09 16.705689 48.408436 38.23877
66 3 26 0.16 16.204732 46.982232 36.665734
67 3 5 0.09 15.655578 46.325078 37.373482
68 3 19 -0.5 15.360631 46.885148 35.497669
69 3 27 0.16 15.858376 45.950262 34.58654
70 3 5 0.09 15.018325 45.256245 34.369802
71 3 9 -0.02 16.238925 46.72432 33.381111
72 3 23 0.25 16.335818 48.065906 33.180606
73 3 3 0.16 16.205575 48.778765 33.994835
74 3 13 -0.6 16.718463 48.393692 31.977897
75 3 25 0 16.727055 47.163575 31.277116
76 3 20 0.54 16.832361 46.868964 29.920069
77 3 14 -0.51 16.996148 47.677177 29.002304
78 3 10 -0.34 16.845112 45.48297 29.700679
79 3 2 0.26 16.754606 45.13317 28.757521
80 3 21 0.75 16.558058 44.527817 30.633602
81 3 7 -0.68 16.520685 43.277267 30.214876
82 3 1 0.32 16.555927 42.976635 29.261785
83 3 1 0.35 16.378493 42.54775 30.883896
84 3 12 -0.74 16.423462 44.820358 31.947645
85 3 24 0.26 16.504969 46.130448 32.158845
86 3 26 0.01 17.585409 46.435537 36.221733
87 3 5 0.09 18.139543 47.186085 35.618464
88 3 28 -0.18 17.027808 45.298574 35.306016
89 3 6 0.09 17.733049 44.809906 34.600212
90 3 6 0.09 16.596785 44.585221 36.040637
91 3 16 -0.57 18.287248 46.029752 37.307003
92 4 30 1.5 19.944839 46.129685 37.229045
93 4 17 -0.78 20.536571 45.771009 38.54398
94 4 17 -0.78 20.283812 47.477166 36.679476
95 4 16 -0.57 20.310777 45.075378 36.192714
96 4 29 -0.08 20.20251 43.661633 36.434159
97 4 6 0.09 19.136593 43.499168 36.702016
98 4 6 0.09 20.882921 43.338882 37.250981
99 4 26 0.16 20.639889 42.835602 35.258931
100 4 5 0.09 20.814329 41.747792 35.402337
101 4 19 -0.5 19.667447 43.003737 34.184733
102 4 27 0.16 20.277702 42.903599 32.931642
103 4 5 0.09 19.741696 42.065294 32.437409
104 4 9 -0.02 20.174985 44.180038 32.140584
105 4 23 0.25 19.953195 45.44191 32.709781
106 4 3 0.16 19.668489 45.419782 33.761709
107 4 13 -0.6 19.957544 46.357787 31.756753
108 4 25 0 20.092753 45.585343 30.554149
109 4 20 0.54 20.061358 46.057538 29.179863
110 4 14 -0.51 19.809232 47.20474 28.845392
111 4 10 -0.34 20.370021 44.927899 28.341687
112 4 2 0.26 20.426873 45.141763 27.356227
113 4 21 0.75 20.490744 43.619595 28.698573
114 4 7 -0.68 20.6001 42.718056 27.754221
115 4 1 0.32 20.739587 42.94946 26.791415
116 4 1 0.35 20.728558 41.783504 28.086049
117 4 12 -0.74 20.460713 43.270803 29.948376
118 4 24 0.26 20.296878 44.288232 30.817766
119 4 26 0.01 21.930623 43.264648 34.583063
120 4 5 0.09 22.009886 44.37161 34.531365
121 4 28 -0.18 21.713706 42.527117 33.339409
122 4 6 0.09 22.49536 42.828984 32.609878
123 4 6 0.09 21.757876 41.421908 33.443743
124 4 16 -0.57 23.016796 42.65212 35.291018
125 5 30 1.5 24.484928 43.240167 34.931001
126 5 17 -0.78 25.43404 42.588559 35.879839
127 5 17 -0.78 24.506827 44.698472 34.860134
128 5 16 -0.57 24.796188 42.717255 33.52256
129 5 29 -0.08 24.948363 41.26619 33.310483
130 5 6 0.09 24.037672 40.713583 33.626067
131 5 6 0.09 25.843706 40.89942 33.856525
132 5 26 0.16 25.256969 41.116223 31.785264
133 5 5 0.09 25.280059 40.033978 31.535193
134 5 19 -0.5 24.088617 41.607615 31.011257
135 5 27 0.16 24.613764 42.054368 29.715977
136 5 5 0.09 24.159435 41.410202 28.933062
137 5 9 -0.02 24.363199 43.484707 29.564638
138 5 23 0.25 24.130508 44.361331 30.621257
139 5 3 0.16 24.175748 44.20456 31.698975
140 5 13 -0.6 23.837645 45.600223 30.187568
141 5 25 0 23.945467 45.493907 28.819876
142 5 20 0.54 23.629306 46.535077 27.83358
143 5 14 -0.51 23.18429 47.647449 28.063709
144 5 10 -0.34 24.021342 46.02165 26.622306
145 5 2 0.26 24.037031 46.647246 25.829537
146 5 21 0.75 24.434145 44.749312 26.305643
147 5 7 -0.68 24.924226 44.62429 25.054707
148 5 1 0.32 24.809522 45.397803 24.431391
149 5 1 0.35 25.534977 43.862758 24.837792
150 5 12 -0.74 24.577137 43.778257 27.173898
151 5 24 0.26 24.261871 44.197982 28.428371
152 5 26 0.01 26.44686 41.826048 31.088625
153 5 5 0.09 26.479306 42.884258 31.425469
154 5 28 -0.18 26.062102 41.671383 29.714842
155 5 6 0.09 26.632897 42.286235 28.986503
156 5 6 0.09 26.136585 40.611884 29.388904
157 5 16 -0.57 27.618441 41.05497 31.304857
158 6 30 1.5 28.868697 41.688507 32.097496
159 6 17 -0.78 29.17112 40.613283 33.046406
160 6 17 -0.78 28.5448 43.058937 32.577177
161 6 16 -0.57 30.001851 41.814335 31.033622
162 6 29 -0.08 30.334167 40.805917 29.99526
163 6 6 0.09 29.683277 39.908164 30.063841
164 6 6 0.09 31.339654 40.49121 30.347788
165 6 26 0.16 30.455128 41.333428 28.602943
166 6 5 0.09 30.735295 40.490914 27.935109
167 6 19 -0.5 29.140694 41.877861 28.240786
168 6 27 0.16 29.301029 42.965881 27.277019
169 6 5 0.09 29.044922 42.61792 26.25347
170 6 8 -0.13 28.581494 44.159299 27.769467
171 6 22 0.05 28.414745 44.407305 29.13977
172 6 3 0.17 28.948317 43.652557 29.717486
173 6 22 -0.13 27.6537 45.423048 29.55273
174 6 3 0.07 27.524377 45.659509 30.608885
175 6 21 0.65 27.317031 46.401241 28.564934
176 6 7 -0.75 26.760286 47.517637 29.063367
177 6 1 0.37 26.501678 47.57165 30.027839
178 6 1 0.33 26.322775 48.168034 28.442426
179 6 11 -0.66 27.392376 46.134397 27.234735
180 6 20 0.52 28.033897 44.941066 26.779103
181 6 15 -0.49 28.183717 44.717974 25.574713
182 6 26 0.01 31.408282 42.495876 28.371999
183 6 5 0.09 31.285247 43.292964 29.136091
184 6 28 -0.18 30.854131 43.108332 27.103831
185 6 6 0.09 31.040638 44.198239 26.995933
186 6 6 0.09 31.253781 42.660942 26.168714
187 6 16 -0.57 32.703995 42.057847 28.128521
188 7 30 1.5 34.067394 42.865525 28.359517
189 7 17 -0.78 35.11748 42.050025 27.721937
190 7 17 -0.78 34.217035 43.254625 29.76744
191 7 16 -0.57 33.810682 44.253301 27.591276
192 7 29 -0.08 34.289357 44.289553 26.227706
193 7 6 0.09 33.804825 43.474496 25.648713
194 7 6 0.09 35.371781 44.041302 26.195296
195 7 26 0.16 34.045047 45.577258 25.380537
196 7 5 0.09 34.401168 45.557453 24.328346
197 7 19 -0.5 32.622955 45.928759 25.313986
198 7 27 0.16 32.389933 47.283443 25.527012
199 7 5 0.09 31.835666 47.610911 24.621543
200 7 8 -0.13 31.565517 47.637509 26.759068
201 7 22 0.05 31.538018 46.869932 27.900759
202 7 3 0.17 32.081565 45.927098 27.839775
203 7 22 -0.13 30.728152 47.147332 28.926539
204 7 3 0.07 30.746943 46.636668 29.889334
205 7 21 0.65 29.988898 48.362958 28.864444
206 7 7 -0.75 29.368798 48.823648 29.961836
207 7 1 0.37 28.708156 49.565993 29.850094
208 7 1 0.33 29.536879 48.428607 30.864993
209 7 11 -0.66 30.023896 49.148998 27.798653
210 7 20 0.52 30.807374 48.793094 26.707041
211 7 15 -0.49 30.900432 49.561548 25.720425
212 7 26 0.01 34.619215 46.964104 26.078819
213 7 5 0.09 34.512501 46.983315 27.184515
214 7 28 -0.18 33.776456 48.007287 25.438729
215 7 6 0.09 33.84345 48.992894 25.947071
216 7 6 0.09 34.106079 48.056811 24.378909
217 7 16 -0.57 35.957229 47.056466 25.644065
218 8 30 1.5 36.901944 48.071918 26.43098
219 8 17 -0.78 38.10885 48.190135 25.573327
220 8 17 -0.78 37.191316 47.552107 27.778581
221 8 16 -0.57 36.206658 49.426416 26.481164
222 8 29 -0.08 36.363237 50.356573 25.454068
223 8 6 0.09 35.88311 50.01567 24.511951
224 8 6 0.09 37.434837 50.504996 25.201153
225 8 26 0.16 35.766439 51.754357 25.725663
226 8 5 0.09 36.107738 52.439903 24.920764
227 8 19 -0.5 34.311188 51.716952 25.90132
228 8 27 0.16 33.936546 52.752176 26.825121
229 8 5 0.09 33.356316 53.476243 26.214072
230 8 8 -0.13 33.160511 52.239935 27.998187
231 8 22 0.05 33.371658 51.037789 28.533467
232 8 3 0.17 34.08569 50.444579 27.962187
233 8 22 -0.13 32.681679 50.566054 29.624987
234 8 3 0.07 32.797584 49.532293 29.95058
235 8 21 0.65 31.761172 51.516753 30.258642
236 8 7 -0.75 31.054038 51.134443 31.241469
237 8 1 0.37 31.031657 50.217627 31.640151
238 8 1 0.33 30.482498 51.875052 31.594797
239 8 11 -0.66 31.633226 52.780332 29.845398
240 8 20 0.52 32.425725 53.149068 28.769509
241 8 15 -0.49 32.422129 54.339334 28.362478
242 8 26 0.01 36.293933 52.297301 27.050613
243 8 5 0.09 36.213942 51.464547 27.781674
244 8 28 -0.18 35.264505 53.412632 27.218363
245 8 6 0.09 35.163521 53.598973 28.308963
246 8 6 0.09 35.399411 54.241833 26.49135
247 8 16 -0.57 37.693968 52.799656 26.935426
248 9 30 1.5 38.357687 53.016292 28.365933
249 9 17 -0.78 39.733177 53.480214 28.26261
250 9 17 -0.78 38.250857 51.787664 29.154384
251 9 16 -0.57 37.641725 54.189317 29.035934
252 9 29 -0.08 37.773023 55.545472 28.555552
253 9 6 0.09 37.440969 55.602485 27.496873
254 9 6 0.09 38.837016 55.859317 28.494375
255 9 26 0.16 36.879716 56.538303 29.391521
256 9 5 0.09 36.954279 57.574908 28.998823
257 9 19 -0.5 35.493786 56.116551 29.360562
258 9 27 0.16 34.877748 56.41855 30.610466
259 9 5 0.09 33.999058 57.071599 30.421382
260 9 9 -0.02 34.459933 55.203567 31.286899
261 9 23 0.25 34.958714 53.897704 30.995096
262 9 3 0.16 35.742507 53.794393 30.244699
263 9 13 -0.6 34.463218 52.930567 31.734553
264 9 25 0 33.546791 53.615323 32.535199
265 9 20 0.54 32.784526 53.167568 33.644809
266 9 14 -0.51 32.706146 51.966716 33.931187
267 9 10 -0.34 32.125783 54.154428 34.312319
268 9 2 0.26 31.444583 54.000945 35.042052
269 9 21 0.75 32.293654 55.505253 33.94191
270 9 7 -0.68 31.621671 56.323005 34.769074
271 9 1 0.32 30.916367 56.047693 35.422336
272 9 1 0.35 31.89918 57.27521 34.641418
273 9 12 -0.74 32.918777 55.993411 32.929812
274 9 24 0.26 33.65261 55.013903 32.34606
275 9 26 0.01 37.19978 56.805555 30.925796
276 9 5 0.09 37.474539 55.793941 31.293857
277 9 28 -0.18 35.849598 57.315017 31.461065
278 9 6 0.09 35.781378 57.0438 32.53629
279 9 6 0.09 35.657482 58.400752 31.324705
280 9 16 -0.57 38.208773 57.76537 31.0065
281 10 30 1.5 38.972126 58.222562 32.298934
282 10 17 -0.78 39.808905 59.456447 32.059897
283 10 17 -0.78 39.711203 57.053451 32.840103
284 10 16 -0.57 37.789526 58.606939 33.238693
285 10 29 -0.08 37.167775 59.875208 33.289077
286 10 6 0.09 36.696818 60.111869 32.311063
287 10 6 0.09 38.06164 60.534651 33.267442
288 10 26 0.16 36.096615 60.08562 34.35277
289 10 5 0.09 35.412859 60.898942 34.028261
290 10 19 -0.5 35.234084 58.901594 34.543275
291 10 27 0.16 35.341958 58.457905 35.928762
292 10 5 0.09 34.494955 58.891136 36.502537
293 10 9 -0.02 35.277698 57.007463 35.86478
294 10 23 0.25 36.029904 56.169239 35.058384
295 10 3 0.16 36.882566 56.618504 34.549233
296 10 13 -0.6 35.848168 54.883452 35.287993
297 10 25 0 34.832567 54.917449 36.272638
298 10 20 0.54 34.404292 53.814477 37.074005
299 10 14 -0.51 34.729764 52.6424 36.980385
300 10 10 -0.34 33.56853 54.266686 38.06982
301 10 2 0.26 33.069541 53.55964 38.590584
302 10 21 0.75 33.177673 55.580603 38.26778
303 10 7 -0.68 32.276194 55.689719 39.16282
304 10 1 0.32 32.061762 56.622865 39.451366
305 10 1 0.35 31.82338 54.895597 39.568195
306 10 12 -0.74 33.62607 56.634552 37.605859
307 10 24 0.26 34.50512 56.238442 36.658428
308 10 26 0.14 36.809579 60.284402 35.713356
309 10 5 0.09 37.81608 60.630945 35.395253
310 10 28 -0.18 36.665819 59.002146 36.47686
311 10 6 0.09 37.623608 58.488088 36.247281
312 10 6 0.09 36.561336 59.142838 37.573953
313 10 18 -0.66 36.341883 61.338084 36.519867
314 10 4 0.43 36.581246 61.251676 37.445523
315 11 4 0.43 28.396362 47.592042 43.047916
316 11 18 -0.66 28.075186 48.371086 42.587982
317 11 29 0.05 27.638161 49.302497 43.596686
318 11 6 0.09 28.269153 49.140808 44.496701
319 11 6 0.09 26.578742 49.123801 43.879562
320 11 26 0.16 27.658272 50.789893 43.203224
321 11 5 0.09 27.159112 51.329489 44.036289
322 11 19 -0.5 29.096079 51.141025 43.205857
323 11 27 0.16 29.307325 52.11429 42.181819
324 11 5 0.09 29.592945 53.043759 42.719248
325 11 8 -0.13 30.406313 51.578954 41.343755
326 11 22 0.05 30.454916 50.323256 40.915643
327 11 3 0.17 29.792052 49.591205 41.376958
328 11 22 -0.13 31.380905 49.901583 40.080674
329 11 3 0.07 31.508341 48.845972 39.840786
330 11 21 0.65 32.309825 50.866061 39.611199
331 11 7 -0.75 33.366883 50.481987 38.893532
332 11 1 0.37 34.090452 51.108904 38.604699
333 11 1 0.33 33.274042 49.694411 38.284349
334 11 11 -0.66 32.198838 52.192344 39.935531
335 11 20 0.52 31.14757 52.543839 40.690018
336 11 15 -0.49 30.906817 53.733572 40.919563
337 11 26 0.01 27.181029 51.121663 41.779801
338 11 5 0.09 27.567238 50.350481 41.079478
339 11 28 -0.18 27.929145 52.385399 41.482083
340 11 6 0.09 27.908435 52.585006 40.389357
341 11 6 0.09 27.474257 53.205649 42.077557
342 11 16 -0.57 25.771428 51.230646 41.712148
343 12 30 1.5 25.100595 51.229677 40.331348
344 12 17 -0.78 23.614995 51.254356 40.610791
345 12 17 -0.78 25.613699 50.024548 39.580886
346 12 16 -0.57 25.432935 52.457398 39.567302
347 12 29 -0.08 24.956014 53.755176 39.875111
348 12 6 0.09 25.223133 54.001081 40.925112
349 12 6 0.09 23.850222 53.778656 39.770259
350 12 26 0.16 25.502828 54.910982 39.001399
351 12 5 0.09 25.456141 55.863056 39.572097
352 12 19 -0.5 26.921782 54.809699 38.662232
353 12 27 0.16 27.075905 54.60493 37.305363
354 12 5 0.09 27.229327 55.60356 36.84328
355 12 8 -0.13 28.325815 53.763303 37.17524
356 12 22 0.05 28.23369 52.412936 37.62075
357 12 3 0.17 27.299253 51.918539 37.886267
358 12 22 -0.13 29.318583 51.723795 37.590031
359 12 3 0.07 29.393431 50.655707 37.794198
360 12 21 0.65 30.469244 52.194122 36.902805
361 12 7 -0.75 31.450473 51.292066 36.520679
362 12 1 0.37 32.202567 51.679418 35.987469
363 12 1 0.33 31.264071 50.318284 36.390256
364 12 11 -0.66 30.564783 53.460028 36.577051
365 12 20 0.52 29.516575 54.296344 36.726675
366 12 15 -0.49 29.612972 55.476873 36.485727
367 12 26 0.01 24.798078 54.777641 37.618388
368 12 5 0.09 23.9235 54.11741 37.801495
369 12 28 -0.18 25.776366 53.999718 36.779431
370 12 6 0.09 25.670676 52.901167 36.907243
371 12 6 0.09 25.736271 54.237561 35.694929
372 12 16 -0.57 24.328783 56.046597 37.069446
373 13 30 1.5 23.310803 56.16618 35.932036
374 13 17 -0.78 22.192844 56.876597 36.584437
375 13 17 -0.78 22.897694 54.936917 35.141315
376 13 16 -0.57 24.165313 57.107828 35.105152
377 13 29 -0.08 23.721198 58.470679 34.794596
378 13 6 0.09 23.861095 59.173811 35.643334
379 13 6 0.09 22.707478 58.51333 34.341968
380 13 26 0.16 24.761615 58.991192 33.718227
381 13 5 0.09 24.547657 60.079806 33.659378
382 13 19 -0.5 26.107977 58.808997 34.165537
383 13 27 0.16 27.071354 58.532828 33.108397
384 13 5 0.09 27.869808 59.304879 33.13539
385 13 9 -0.02 27.620334 57.105343 33.203006
386 13 23 0.25 27.194042 56.105491 34.118861
387 13 3 0.16 26.406066 56.145221 34.870934
388 13 13 -0.6 27.856957 55.017847 33.955562
389 13 25 0 28.732614 55.257924 32.933223
390 13 20 0.54 29.480772 54.296803 32.206798
391 13 14 -0.51 29.572995 53.113207 32.606985
392 13 10 -0.34 30.105471 54.837935 31.062934
393 13 2 0.26 30.715383 54.180613 30.598138
394 13 21 0.75 30.139205 56.159755 30.70314
395 13 7 -0.68 30.825557 56.406886 29.62657
396 13 1 0.32 31.510565 55.768584 29.27538
397 13 1 0.35 30.894584 57.307184 29.196803
398 13 12 -0.74 29.331757 57.072225 31.340355
399 13 24 0.26 28.59261 56.520999 32.431752
400 13 26 0.01 24.761982 58.321052 32.279336
401 13 5 0.09 24.523688 57.237957 32.345983
402 13 28 -0.18 26.150302 58.696765 31.837371
403 13 6 0.09 26.480882 58.077997 30.975881
404 13 6 0.09 26.118387 59.721219 31.408654
405 13 16 -0.57 23.822252 58.974497 31.378344
406 14 30 1.5 23.323142 58.215382 30.200657
407 14 17 -0.78 22.424581 59.128618 29.462364
408 14 17 -0.78 22.824023 56.889788 30.613541
409 14 16 -0.57 24.585474 57.970374 29.270793
410 14 29 -0.08 25.143531 59.098657 28.557413
411 14 6 0.09 25.628856 59.870257 29.192563
412 14 6 0.09 24.350723 59.576162 27.942787
413 14 26 0.16 26.200013 58.606105 27.536943
414 14 5 0.09 26.524352 59.492949 26.951594
415 14 19 -0.5 27.379703 58.013841 28.245017
416 14 27 0.16 27.791057 56.878653 27.442313
417 14 5 0.09 28.789805 57.227759 27.103272
418 14 9 -0.02 27.673615 55.645536 28.298098
419 14 23 0.25 26.983361 55.598637 29.483641
420 14 3 0.16 26.531504 56.499489 29.898841
421 14 13 -0.6 26.956364 54.325341 29.912803
422 14 25 0 27.81264 53.585857 29.04134
423 14 20 0.54 28.265691 52.298936 29.017797
424 14 14 -0.51 27.950405 51.383122 29.792192
425 14 10 -0.34 28.948217 52.027846 27.822233
426 14 2 0.26 29.561569 51.226831 27.774534
427 14 21 0.75 29.366963 52.926425 26.875319
428 14 7 -0.68 30.162946 52.457969 25.898864
429 14 1 0.32 30.186237 52.978663 25.045438
430 14 1 0.35 30.227383 51.461503 25.844983
431 14 12 -0.74 28.952645 54.20859 26.995537
432 14 24 0.26 28.237059 54.439434 28.071963