
19114 atoms
15405 bonds
19461 angles
9407 dihedrals
60 impropers
37 atom types
46 bond types
87 angle types
163 dihedral types
6 improper types
-31.000000 31.000000 xlo xhi
-31.000000 31.000000 ylo yhi
-31.000000 31.000000 zlo zhi

Pair Coeffs

1 0.046000 0.400014 # 2.395219
2 0.046000 0.400014 # 2.395219
3 0.046000 1.959977 # 9.352442
4 0.046000 0.400014 # 2.395219
5 0.022000 2.351973 # 9.840847
6 0.028000 2.387609 # 10.317930
7 0.200000 3.296325 # 18.014892
8 0.200000 3.296325 # 18.014892
9 0.200000 3.296325 # 18.014892
10 0.200000 3.296325 # 18.014892
11 0.200000 3.296325 # 18.014892
12 0.200000 3.296325 # 18.014892
13 0.200000 3.296325 # 18.014892
14 0.120000 3.029056 # 15.576228
15 0.120000 3.029056 # 15.576228
16 0.152100 3.153781 # 16.679768
17 0.120000 3.029056 # 15.576228
18 0.152100 3.153781 # 16.679768
19 0.152100 3.153781 # 16.679768
20 0.100000 3.385415 # 16.693780
21 0.100000 3.385415 # 16.693780
22 0.090000 3.385415 # 16.444395
23 0.075000 3.385415 # 16.021615
24 0.075000 3.385415 # 16.021615
25 0.075000 3.385415 # 16.021615
26 0.020000 4.053589 0.010000 3.385415 # 15.479404
27 0.020000 4.053589 0.010000 3.385415 # 15.479404
28 0.056000 3.581413 0.010000 3.385415 # 16.126207
29 0.056000 3.581413 0.010000 3.385415 # 16.126207
30 0.585000 3.830864 # 23.887130
31 0.078000 3.634867 0.010000 3.385415 # 17.124002
32 0.046000 0.400014 # 2.395219
33 0.024000 2.387609 # 10.093197
34 0.192100 3.144872 # 17.203722
35 0.087439 2.439281 # 12.365528
36 0.152100 3.150574 # 16.665228
37 0.046000 0.400000 # 2.395150

Bond Coeffs

1 302.000000 1.360000
2 380.000000 1.367000
3 340.000000 1.396000
4 350.000000 1.335000
5 660.000000 1.234000
6 620.000000 1.245000
7 320.000000 1.406000
8 360.000000 1.366000
9 400.000000 1.392000
10 450.000000 1.343000
11 320.000000 1.326000
12 500.000000 1.326000
13 350.000000 1.090000
14 302.000000 1.343000
15 380.000000 1.090000
16 300.000000 1.378000
17 400.000000 1.305000
18 320.000000 1.350000
19 302.000000 1.375000
20 350.000000 1.315000
21 310.000000 1.365000
22 488.000000 1.000000
23 471.000000 1.010000
24 270.000000 1.600000
25 580.000000 1.480000
26 260.000000 1.420000
27 200.000000 1.518000
28 240.000000 1.446000
29 222.500000 1.529000
30 222.500000 1.516000
31 309.000000 1.111000
32 309.000000 1.111000
33 309.000000 1.111000
34 222.500000 1.512000
35 320.000000 1.440000
36 428.000000 1.420000
37 310.000000 1.433000
38 428.000000 1.420000
39 220.000000 1.456000
40 220.000000 1.458000
41 309.000000 1.111000
42 545.000000 0.960000
43 428.000000 1.420000
44 322.000000 1.111000
45 545.000000 0.960000
46 450.000000 0.957200

Angle Coeffs

1 harmonic 40.000000 121.500000
2 harmonic 31.000000 117.000000
3 harmonic 39.000000 124.800000
4 harmonic 70.000000 131.100000
5 harmonic 70.000000 122.200000
6 harmonic 90.000000 109.400000
7 harmonic 70.000000 129.900000
8 harmonic 70.000000 119.600000
9 harmonic 70.000000 107.800000
10 harmonic 100.000000 104.600000
11 harmonic 100.000000 111.400000
12 harmonic 120.000000 103.800000
13 harmonic 100.000000 113.000000
14 harmonic 100.000000 107.200000
15 harmonic 140.000000 125.500000
16 harmonic 125.000000 129.000000
17 harmonic 45.000000 113.300000
18 harmonic 45.000000 115.600000
19 harmonic 95.000000 115.400000
20 harmonic 95.000000 122.400000
21 harmonic 50.000000 127.500000
22 harmonic 50.000000 124.700000
23 harmonic 40.000000 122.200000
24 harmonic 50.000000 124.100000
25 harmonic 50.000000 116.800000
26 harmonic 85.000000 119.100000
27 harmonic 85.000000 119.300000
28 harmonic 85.000000 117.800000
29 harmonic 85.000000 122.900000
30 harmonic 130.000000 119.400000
31 harmonic 130.000000 123.800000
32 harmonic 81.000000 122.300000
33 harmonic 81.000000 118.400000
34 harmonic 38.000000 120.100000
35 harmonic 38.000000 122.100000
36 harmonic 44.000000 115.000000
37 harmonic 45.000000 120.000000
38 harmonic 45.000000 115.900000
39 harmonic 45.000000 126.500000
40 harmonic 45.000000 126.300000
41 harmonic 110.000000 108.000000
42 harmonic 110.000000 113.700000
43 harmonic 110.000000 108.000000
44 harmonic 110.000000 113.700000
45 harmonic 43.000000 111.000000
46 harmonic 43.000000 111.000000
47 harmonic 80.000000 104.300000
48 harmonic 110.000000 108.000000
49 harmonic 90.000000 102.000000
50 harmonic 80.000000 100.000000
51 charmm 60.000000 102.000000 8.000000 2.561000
52 harmonic 100.000000 104.000000
53 harmonic 45.200000 107.240000
54 harmonic 45.200000 107.240000
55 harmonic 40.000000 108.000000
56 charmm 33.400000 110.100000 22.530000 2.179000
57 charmm 33.400000 110.100000 22.530000 2.179000
58 charmm 34.500000 110.100000 22.530000 2.179000
59 charmm 34.530000 110.100000 22.530000 2.179000
60 charmm 35.500000 109.000000 5.400000 1.802000
61 harmonic 90.000000 108.200000
62 harmonic 45.000000 110.000000
63 harmonic 70.000000 108.400000
64 harmonic 115.000000 109.700000
65 harmonic 115.000000 109.700000
66 charmm 20.000000 120.000000 35.000000 2.330000
67 charmm 20.000000 120.000000 35.000000 2.330000
68 charmm 34.500000 110.100000 22.530000 2.179000
69 harmonic 60.000000 109.500000
70 harmonic 57.500000 106.000000
71 charmm 35.500000 109.000000 5.400000 1.802000
72 charmm 34.530000 110.100000 22.530000 2.179000
73 harmonic 60.000000 109.500000
74 harmonic 75.700000 110.100000
75 harmonic 45.900000 108.890000
76 harmonic 75.700000 110.000000
77 harmonic 75.700000 110.100000
78 harmonic 60.000000 109.500000
79 harmonic 57.500000 109.000000
80 harmonic 98.900000 111.600000
81 harmonic 120.000000 120.000000
82 charmm 35.500000 108.400000 5.400000 1.802000
83 harmonic 57.500000 106.000000
84 harmonic 55.000000 108.890000
85 harmonic 55.000000 104.520000
86 tbaserestr 1.08859 -8.07307 0.095917 1.848169
87 tbaserestr 1.06395 -4.76673 0.095917 1.848169

Dihedral Coeffs

1 0.900000 1 180 1.000000
2 0.400000 2 180 0.000000
3 0.200000 3 180 0.000000
4 1.200000 1 180 1.000000
5 0.100000 2 180 0.000000
6 0.100000 3 180 0.000000
7 0.000000 6 0 0.000000
8 0.100000 3 0 1.000000
9 0.100000 3 0 1.000000
10 0.000000 3 0 1.000000
11 0.000000 3 0 1.000000
12 3.000000 2 180 1.000000
13 0.600000 2 180 0.500000
14 0.600000 2 180 0.500000
15 6.000000 2 180 0.500000
16 0.600000 2 180 0.500000
17 6.000000 2 180 0.500000
18 0.600000 2 180 0.500000
19 1.000000 2 180 1.000000
20 1.000000 2 180 1.000000
21 2.000000 2 180 1.000000
22 2.000000 2 180 1.000000
23 2.000000 2 180 1.000000
24 1.600000 2 180 1.000000
25 1.600000 2 180 1.000000
26 3.400000 2 180 1.000000
27 3.400000 2 180 1.000000
28 4.600000 2 180 1.000000
29 4.600000 2 180 1.000000
30 0.200000 2 180 0.500000
31 2.000000 2 180 0.500000
32 0.200000 2 180 0.500000
33 2.000000 2 180 0.500000
34 0.200000 2 180 0.500000
35 0.200000 2 180 0.500000
36 6.000000 2 180 0.000000
37 16.000000 2 180 0.000000
38 6.000000 2 180 0.000000
39 6.000000 2 180 0.000000
40 10.000000 2 180 0.000000
41 14.000000 2 180 1.000000
42 0.000000 2 180 1.000000
43 14.000000 2 180 1.000000
44 0.000000 2 180 1.000000
45 4.000000 2 180 1.000000
46 4.000000 2 180 1.000000
47 0.000000 2 180 1.000000
48 1.200000 2 180 1.000000
49 1.200000 2 180 1.000000
50 3.600000 2 180 1.000000
51 3.600000 2 180 1.000000
52 5.600000 2 180 1.000000
53 5.600000 2 180 1.000000
54 10.000000 2 180 1.000000
55 2.000000 2 180 1.000000
56 2.000000 2 180 1.000000
57 2.000000 2 180 1.000000
58 2.000000 2 180 1.000000
59 0.300000 2 180 1.000000
60 11.000000 2 180 1.000000
61 11.000000 2 180 1.000000
62 11.000000 2 180 1.000000
63 0.000000 3 0 1.000000
64 1.000000 1 0 1.000000
65 1.000000 3 0 1.000000
66 0.000000 3 180 1.000000
67 0.000000 3 0 1.000000
68 0.195000 3 0 1.000000
69 0.300000 2 180 1.000000
70 11.000000 2 180 1.000000
71 11.000000 2 180 1.000000
72 11.000000 2 180 1.000000
73 0.200000 3 0 1.000000
74 1.100000 1 180 0.000000
75 1.400000 1 0 1.000000
76 0.000000 3 0 1.000000
77 0.000000 3 180 1.000000
78 0.000000 3 0 1.000000
79 0.195000 3 0 1.000000
80 0.000000 3 0 1.000000
81 0.000000 3 0 1.000000
82 0.000000 3 0 1.000000
83 0.000000 3 0 1.000000
84 0.000000 3 0 1.000000
85 0.000000 3 0 1.000000
86 0.200000 1 120 1.000000
87 1.330000 1 0 1.000000
88 0.180000 2 0 0.000000
89 0.320000 3 0 0.000000
90 0.000000 3 0 1.000000
91 0.200000 4 180 1.000000
92 0.800000 3 180 0.000000
93 0.400000 2 0 0.000000
94 2.500000 1 180 0.000000
95 0.200000 4 180 1.000000
96 0.800000 3 180 0.000000
97 0.400000 2 0 0.000000
98 2.500000 1 180 0.000000
99 3.400000 1 180 1.000000
100 3.400000 1 180 1.000000
101 0.195000 3 0 1.000000
102 0.195000 1 0 1.000000
103 0.195000 3 0 1.000000
104 0.195000 3 0 1.000000
105 0.500000 4 180 1.000000
106 0.200000 4 0 1.000000
107 0.800000 3 180 0.000000
108 0.200000 4 0 1.000000
109 0.800000 3 180 0.000000
110 0.500000 6 0 1.000000
111 0.300000 5 0 0.000000
112 0.600000 4 180 0.000000
113 0.200000 3 0 0.000000
114 0.500000 6 0 1.000000
115 0.300000 5 0 0.000000
116 0.600000 4 180 0.000000
117 0.200000 3 0 0.000000
118 0.800000 3 0 1.000000
119 0.800000 6 0 1.000000
120 0.400000 5 0 0.000000
121 2.000000 3 180 0.000000
122 0.800000 6 0 1.000000
123 0.400000 5 0 0.000000
124 2.000000 3 180 0.000000
125 0.195000 3 0 1.000000
126 0.195000 3 180 1.000000
127 0.195000 3 0 1.000000
128 0.195000 3 0 1.000000
129 0.600000 5 0 1.000000
130 0.200000 4 0 0.000000
131 0.000000 3 180 0.000000
132 0.400000 2 0 0.000000
133 1.900000 1 180 0.000000
134 1.900000 1 180 1.000000
135 0.500000 3 0 1.000000
136 0.300000 2 180 0.000000
137 1.500000 1 0 0.000000
138 0.500000 3 0 1.000000
139 1.000000 2 180 0.000000
140 0.300000 1 0 0.000000
141 0.000000 3 0 1.000000
142 0.195000 3 0 1.000000
143 0.195000 3 0 1.000000
144 0.600000 6 180 0.000000
145 1.000000 4 0 0.000000
146 0.300000 5 180 0.000000
147 0.300000 6 180 0.000000
148 0.600000 6 0 0.000000
149 0.400000 6 0 0.000000
150 0.600000 6 180 0.000000
151 0.000000 3 0 1.000000
152 0.195000 3 0 1.000000
153 0.195000 3 0 1.000000
154 0.195000 3 180 1.000000
155 0.195000 3 0 1.000000
156 0.195000 3 0 1.000000
157 0.195000 3 0 1.000000
158 0.195000 3 0 1.000000
159 0.195000 3 0 1.000000
160 0.195000 3 0 1.000000
161 0.000000 3 0 1.000000
162 0.000000 2 180 1.000000
163 0.180000 3 0 1.000000

Improper Coeffs

1 6.000000 0.000000
2 90.000000 0.000000
3 40.000000 0.000000
4 60.000000 0.000000
5 4.000000 0.000000
6 80.000000 0.000000

Masses

1	1.008000
2	1.008000
3	1.008000
4	1.008000
5	1.008000
6	1.008000
7	14.007000
8	14.007000
9	14.007000
10	14.007000
11	14.007000
12	14.007000
13	14.007000
14	15.999400
15	15.999400
16	15.999400
17	15.999400
18	15.999400
19	15.999400
20	12.011000
21	12.011000
22	12.011000
23	12.011000
24	12.011000
25	12.011000
26	12.011000
27	12.011000
28	12.011000
29	12.011000
30	30.974000
31	12.011000
32	1.008000
33	1.008000
34	15.999400
35	22.990000
36	15.999400
37	1.008000

Atoms

1 1 4 0.430000 -0.413800 -8.302119 -17.629950
2 1 18 -0.660000 0.273641 -7.859788 -17.140000
3 1 29 0.050000 1.568652 -7.947469 -17.840000
4 1 6 0.090000 1.427902 -7.507661 -18.801730
5 1 6 0.090000 1.810080 -8.985962 -17.899170
6 1 26 0.160000 2.583483 -7.154038 -17.010000
7 1 5 0.090000 3.546578 -7.183113 -17.511350
8 1 19 -0.500000 2.137343 -5.773559 -16.910000
9 1 27 0.160000 1.855742 -5.437654 -15.520000
10 1 5 0.090000 2.730472 -4.917563 -15.108870
11 1 8 -0.130000 0.645096 -4.603633 -15.400000
12 1 22 0.050000 -0.589304 -5.144707 -15.310000
13 1 3 0.170000 -0.708747 -6.205821 -15.315610
14 1 22 -0.130000 -1.682430 -4.278290 -15.210000
15 1 3 0.070000 -2.673257 -4.683904 -15.156440
16 1 21 0.650000 -1.412010 -2.864465 -15.180000
17 1 7 -0.750000 -2.410583 -2.070165 -15.070000
18 1 1 0.370000 -2.168358 -1.132642 -15.053740
19 1 1 0.330000 -3.332241 -2.476343 -15.000050
20 1 11 -0.660000 -0.210109 -2.400096 -15.260000
21 1 20 0.520000 0.848779 -3.254031 -15.370000
22 1 15 -0.490000 1.990919 -2.798360 -15.440000
23 1 26 0.010000 2.674209 -7.704917 -15.560000
24 1 5 0.090000 2.522250 -8.702431 -15.060980
25 1 28 -0.180000 1.944777 -6.697345 -14.650000
26 1 6 0.090000 0.895323 -6.909729 -14.730160
27 1 6 0.090000 2.329985 -6.796765 -13.660460
28 1 16 -0.570000 4.085999 -7.918332 -15.250000
29 2 30 1.500000 4.728904 -7.754289 -13.830000
30 2 17 -0.780000 6.083373 -8.391532 -14.020000
31 2 17 -0.780000 3.860065 -8.317007 -12.740000
32 2 16 -0.570000 4.841247 -6.224347 -13.760000
33 2 29 -0.080000 5.940471 -5.534095 -14.460000
34 2 6 0.090000 5.568089 -5.261013 -15.421730
35 2 6 0.090000 6.746200 -6.232345 -14.519170
36 2 26 0.160000 6.295120 -4.295693 -13.630000
37 2 5 0.090000 7.091369 -3.753122 -14.131350
38 2 19 -0.500000 5.122759 -3.441095 -13.530000
39 2 27 0.160000 4.697500 -3.334864 -12.140000
40 2 5 0.090000 5.099469 -2.399948 -11.728870
41 2 8 -0.130000 3.227841 -3.371726 -12.020000
42 2 22 0.050000 2.547225 -4.535027 -11.930000
43 2 3 0.170000 3.074301 -5.463692 -11.935610
44 2 22 -0.130000 1.153600 -4.476604 -11.830000
45 2 3 0.070000 0.590419 -5.387146 -11.776440
46 2 21 0.650000 0.541350 -3.173846 -11.800000
47 2 7 -0.750000 -0.733390 -3.118190 -11.690000
48 2 1 0.370000 -1.088488 -2.217342 -11.673740
49 2 1 0.330000 -1.240282 -3.988532 -11.620050
50 2 11 -0.660000 1.240759 -2.091704 -11.880000
51 2 20 0.520000 2.599348 -2.160154 -11.990000
52 2 15 -0.490000 3.255522 -1.120175 -12.060000
53 2 26 0.010000 6.692316 -4.688035 -12.180000
54 2 5 0.090000 7.155703 -5.584361 -11.680980
55 2 28 -0.180000 5.509958 -4.301642 -11.270000
56 2 6 0.090000 4.785768 -5.090318 -11.350160
57 2 6 0.090000 5.880035 -4.155655 -10.280460
58 2 16 -0.570000 7.959921 -4.030863 -11.870000
59 3 30 1.500000 8.383621 -3.520259 -10.450000
60 3 17 -0.780000 9.853970 -3.239663 -10.640000
61 3 17 -0.780000 8.011472 -4.486198 -9.360000
62 3 16 -0.570000 7.575230 -2.216477 -10.380000
63 3 29 -0.080000 8.058801 -1.011943 -11.080000
64 3 6 0.090000 7.609538 -1.026860 -12.042880
65 3 6 0.090000 9.118289 -1.107784 -11.121730
66 3 26 0.160000 7.617804 0.198403 -10.250000
67 3 5 0.090000 7.945509 1.099742 -10.755580
68 3 19 -0.500000 6.167025 0.200691 -10.150000
69 3 27 0.160000 5.760541 0.036672 -8.760000
70 3 5 0.090000 5.514785 1.020664 -8.353170
71 3 9 -0.020000 4.593229 -0.856994 -8.640000
72 3 23 0.250000 4.489790 -2.183180 -8.550000
73 3 3 0.160000 5.356191 -2.881065 -8.558680
74 3 13 -0.600000 3.258146 -2.712951 -8.450000
75 3 25 0.000000 2.500098 -1.550009 -8.470000
76 3 20 0.540000 1.087384 -1.352862 -8.420000
77 3 14 -0.510000 0.333246 -2.395354 -8.310000
78 3 10 -0.340000 0.629735 -0.127729 -8.470000
79 3 2 0.260000 -0.331075 -0.145157 -8.398530
80 3 21 0.750000 1.482441 0.887619 -8.590000
81 3 7 -0.680000 0.765857 2.116717 -8.650000
82 3 1 0.320000 -0.182730 2.021208 -8.593130
83 3 1 0.350000 1.392068 2.806259 -8.736450
84 3 12 -0.740000 2.828418 0.786105 -8.650000
85 3 24 0.260000 3.316161 -0.415412 -8.610000
86 3 26 0.010000 8.169756 0.114457 -8.800000
87 3 5 0.090000 9.072459 -0.300263 -8.317640
88 3 28 -0.180000 6.986091 -0.267917 -7.890000
89 3 6 0.090000 6.829990 -1.324877 -7.999940
90 3 6 0.090000 7.213263 0.038377 -6.896740
91 3 16 -0.570000 8.808993 1.391200 -8.490000
92 4 30 1.500000 8.851648 2.053332 -7.070000
93 4 17 -0.780000 9.876256 3.144589 -7.260000
94 4 17 -0.780000 9.118339 1.053127 -5.980000
95 4 16 -0.570000 7.431303 2.632954 -7.000000
96 4 29 -0.080000 7.114513 3.891678 -7.700000
97 4 6 0.090000 6.759819 3.615540 -8.662880
98 4 6 0.090000 8.027990 4.436892 -7.741730
99 4 26 0.160000 6.046315 4.611656 -6.870000
100 4 5 0.090000 5.781640 5.533476 -7.375580
101 4 19 -0.500000 4.871265 3.760761 -6.770000
102 4 27 0.160000 4.638820 3.389143 -5.380000
103 4 5 0.090000 3.861624 4.040757 -4.973170
104 4 9 -0.020000 4.219729 1.980023 -5.260000
105 4 23 0.250000 4.915557 0.846315 -5.170000
106 4 3 0.160000 6.026697 0.790972 -5.178680
107 4 13 -0.600000 4.230528 -0.306221 -5.070000
108 4 25 0.000000 2.933695 0.189050 -5.090000
109 4 20 0.540000 1.674904 -0.481827 -5.040000
110 4 14 -0.510000 1.677555 -1.768492 -4.930000
111 4 10 -0.340000 0.584544 0.240328 -5.090000
112 4 2 0.260000 -0.182524 -0.338522 -5.018530
113 4 21 0.750000 0.677590 1.562969 -5.210000
114 4 7 -0.680000 -0.624584 2.136133 -5.270000
115 4 1 0.320000 -1.335868 1.501299 -5.213130
116 4 1 0.350000 -0.523271 3.062061 -5.356450
117 4 12 -0.740000 1.826177 2.271988 -5.270000
118 4 24 0.260000 2.927004 1.586628 -5.230000
119 4 26 0.010000 6.542196 4.868172 -5.420000
120 4 5 0.090000 7.516265 5.063252 -4.937640
121 4 28 -0.180000 5.809345 3.863085 -4.510000
122 4 6 0.090000 6.304322 2.916232 -4.619940
123 4 6 0.090000 5.813095 4.244410 -3.516740
124 4 16 -0.570000 6.308899 6.276814 -5.110000
125 5 30 1.500000 5.954216 6.837561 -3.690000
126 5 17 -0.780000 6.141717 8.322656 -3.880000
127 5 17 -0.780000 6.757879 6.185135 -2.600000
128 5 16 -0.570000 4.464439 6.471628 -3.620000
129 5 29 -0.080000 3.468291 7.303752 -4.320000
130 5 6 0.090000 3.343648 6.871868 -5.282880
131 5 6 0.090000 3.886842 8.281768 -4.361730
132 5 26 0.160000 2.180908 7.258356 -3.490000
133 5 5 0.090000 1.424950 7.848552 -3.995580
134 5 19 -0.500000 1.730417 5.879291 -3.390000
135 5 27 0.160000 1.760797 5.442017 -2.000000
136 5 5 0.090000 0.749023 5.512359 -1.593170
137 5 9 -0.020000 2.250005 4.055680 -1.880000
138 5 23 0.250000 3.479318 3.547488 -1.790000
139 5 3 0.160000 4.410779 4.155826 -1.798680
140 5 13 -0.600000 3.602561 2.212417 -1.690000
141 5 25 0.000000 2.262288 1.850840 -1.710000
142 5 20 0.540000 1.638236 0.568191 -1.660000
143 5 14 -0.510000 2.396664 -0.471185 -1.550000
144 5 10 -0.340000 0.331645 0.511528 -1.710000
145 5 2 0.260000 0.051313 -0.407642 -1.638530
146 5 21 0.750000 -0.370508 1.636259 -1.830000
147 5 7 -0.680000 -1.760886 1.334560 -1.890000
148 5 1 0.320000 -1.963181 0.402887 -1.833130
149 5 1 0.350000 -2.223169 2.143202 -1.976450
150 5 12 -0.740000 0.141968 2.884990 -1.890000
151 5 24 0.260000 1.435400 2.977572 -1.850000
152 5 26 0.010000 2.431308 7.757353 -2.040000
153 5 5 0.090000 3.104682 8.487720 -1.557640
154 5 28 -0.180000 2.429195 6.513461 -1.130000
155 5 6 0.090000 3.386186 6.038382 -1.239940
156 5 6 0.090000 2.208092 6.824165 -0.136740
157 5 16 -0.570000 1.414589 8.759840 -1.730000
158 6 30 1.500000 0.798045 9.005017 -0.310000
159 6 17 -0.780000 0.076820 10.316694 -0.500000
160 6 17 -0.780000 1.831708 8.949574 0.780000
161 6 16 -0.570000 -0.192119 7.833302 -0.240000
162 6 29 -0.080000 -1.487130 7.920983 -0.940000
163 6 6 0.090000 -1.346381 7.481175 -1.901730
164 6 6 0.090000 -1.728558 8.959476 -0.999170
165 6 26 0.160000 -2.501962 7.127553 -0.110000
166 6 5 0.090000 -3.465057 7.156628 -0.611350
167 6 19 -0.500000 -2.055823 5.747073 -0.010000
168 6 27 0.160000 -1.774222 5.411168 1.380000
169 6 5 0.090000 -2.648952 4.891077 1.791130
170 6 8 -0.130000 -0.563576 4.577146 1.500000
171 6 22 0.050000 0.670824 5.118220 1.590000
172 6 3 0.170000 0.790267 6.179334 1.584390
173 6 22 -0.130000 1.763950 4.251802 1.690000
174 6 3 0.070000 2.754777 4.657417 1.743560
175 6 21 0.650000 1.493529 2.837977 1.720000
176 6 7 -0.750000 2.492101 2.043677 1.830000
177 6 1 0.370000 2.249876 1.106154 1.846260
178 6 1 0.330000 3.413760 2.449855 1.899950
179 6 11 -0.660000 0.291628 2.373609 1.640000
180 6 20 0.520000 -0.767259 3.227545 1.530000
181 6 15 -0.490000 -1.909400 2.771874 1.460000
182 6 26 0.010000 -2.592688 7.678431 1.340000
183 6 5 0.090000 -2.440728 8.675945 1.839020
184 6 28 -0.180000 -1.863256 6.670859 2.250000
185 6 6 0.090000 -0.813802 6.883243 2.169840
186 6 6 0.090000 -2.248464 6.770279 3.239540
187 6 16 -0.570000 -4.004478 7.891848 1.650000
188 7 30 1.500000 -4.647383 7.727805 3.070000
189 7 17 -0.780000 -6.001851 8.365048 2.880000
190 7 17 -0.780000 -3.778544 8.290522 4.160000
191 7 16 -0.570000 -4.759726 6.197863 3.140000
192 7 29 -0.080000 -5.858950 5.507611 2.440000
193 7 6 0.090000 -5.486569 5.234529 1.478270
194 7 6 0.090000 -6.664680 6.205861 2.380830
195 7 26 0.160000 -6.213600 4.269209 3.270000
196 7 5 0.090000 -7.009850 3.726638 2.768650
197 7 19 -0.500000 -5.041240 3.414611 3.370000
198 7 27 0.160000 -4.615981 3.308379 4.760000
199 7 5 0.090000 -5.017950 2.373464 5.171130
200 7 8 -0.130000 -3.146322 3.345241 4.880000
201 7 22 0.050000 -2.465706 4.508541 4.970000
202 7 3 0.170000 -2.992781 5.437207 4.964390
203 7 22 -0.130000 -1.072081 4.450117 5.070000
204 7 3 0.070000 -0.508899 5.360659 5.123560
205 7 21 0.650000 -0.459831 3.147359 5.100000
206 7 7 -0.750000 0.814910 3.091703 5.210000
207 7 1 0.370000 1.170007 2.190855 5.226260
208 7 1 0.330000 1.321801 3.962045 5.279950
209 7 11 -0.660000 -1.159241 2.065218 5.020000
210 7 20 0.520000 -2.517829 2.133668 4.910000
211 7 15 -0.490000 -3.174004 1.093690 4.840000
212 7 26 0.010000 -6.610797 4.661552 4.720000
213 7 5 0.090000 -7.074183 5.557877 5.219020
214 7 28 -0.180000 -5.428438 4.275158 5.630000
215 7 6 0.090000 -4.704248 5.063834 5.549840
216 7 6 0.090000 -5.798516 4.129170 6.619540
217 7 16 -0.570000 -7.878402 4.004380 5.030000
218 8 30 1.500000 -8.302101 3.493776 6.450000
219 8 17 -0.780000 -9.772451 3.213180 6.260000
220 8 17 -0.780000 -7.929953 4.459715 7.540000
221 8 16 -0.570000 -7.493712 2.189993 6.520000
222 8 29 -0.080000 -7.977283 0.985460 5.820000
223 8 6 0.090000 -7.515506 0.983413 4.858270
224 8 6 0.090000 -9.039553 1.076761 5.760830
225 8 26 0.160000 -7.536286 -0.224886 6.650000
226 8 5 0.090000 -7.861551 -1.131859 6.148650
227 8 19 -0.500000 -6.085507 -0.227174 6.750000
228 8 27 0.160000 -5.679023 -0.063157 8.140000
229 8 5 0.090000 -5.454694 -1.055791 8.551130
230 8 8 -0.130000 -4.511711 0.830509 8.260000
231 8 22 0.050000 -4.644852 2.171695 8.350000
232 8 3 0.170000 -5.617121 2.613194 8.344390
233 8 22 -0.130000 -3.483045 2.943581 8.450000
234 8 3 0.070000 -3.562624 4.011255 8.503560
235 8 21 0.650000 -2.221982 2.249499 8.480000
236 8 7 -0.750000 -1.157981 2.953745 8.590000
237 8 1 0.370000 -0.341196 2.433665 8.606260
238 8 1 0.330000 -1.259472 3.955810 8.659950
239 8 11 -0.660000 -2.151750 0.962925 8.400000
240 8 20 0.520000 -3.291105 0.219745 8.290000
241 8 15 -0.490000 -3.210678 -1.007306 8.220000
242 8 26 0.010000 -8.088238 -0.140940 8.100000
243 8 5 0.090000 -8.989972 0.311831 8.599020
244 8 28 -0.180000 -6.904573 0.241434 9.010000
245 8 6 0.090000 -6.782263 1.305154 8.929840
246 8 6 0.090000 -7.118163 -0.094199 9.999540
247 8 16 -0.570000 -8.727476 -1.417683 8.410000
248 9 30 1.500000 -8.770131 -2.079814 9.830000
249 9 17 -0.780000 -9.794739 -3.171071 9.640000
250 9 17 -0.780000 -9.036821 -1.079610 10.920000
251 9 16 -0.570000 -7.349786 -2.659437 9.900000
252 9 29 -0.080000 -7.032997 -3.918161 9.200000
253 9 6 0.090000 -6.678303 -3.642024 8.237120
254 9 6 0.090000 -7.946475 -4.463375 9.158270
255 9 26 0.160000 -5.964799 -4.638140 10.030000
256 9 5 0.090000 -5.700125 -5.559960 9.524420
257 9 19 -0.500000 -4.789749 -3.787246 10.130000
258 9 27 0.160000 -4.557304 -3.415627 11.520000
259 9 5 0.090000 -3.780108 -4.067242 11.926830
260 9 9 -0.020000 -4.138212 -2.006508 11.640000
261 9 23 0.250000 -4.834040 -0.872800 11.730000
262 9 3 0.160000 -5.945180 -0.817456 11.721320
263 9 13 -0.600000 -4.149010 0.279736 11.830000
264 9 25 0.000000 -2.852177 -0.215536 11.810000
265 9 20 0.540000 -1.593386 0.455341 11.860000
266 9 14 -0.510000 -1.596037 1.742006 11.970000
267 9 10 -0.340000 -0.503026 -0.266814 11.810000
268 9 2 0.260000 0.264042 0.312035 11.881470
269 9 21 0.750000 -0.596073 -1.589456 11.690000
270 9 7 -0.680000 0.706100 -2.162620 11.630000
271 9 1 0.320000 1.417385 -1.527787 11.686870
272 9 1 0.350000 0.604787 -3.088548 11.543550
273 9 12 -0.740000 -1.744661 -2.298474 11.630000
274 9 24 0.260000 -2.845487 -1.613114 11.670000
275 9 26 0.010000 -6.460680 -4.894656 11.480000
276 9 5 0.090000 -7.434749 -5.089736 11.962360
277 9 28 -0.180000 -5.727829 -3.889569 12.390000
278 9 6 0.090000 -6.222805 -2.942716 12.280060
279 9 6 0.090000 -5.731580 -4.270894 13.383260
280 9 16 -0.570000 -6.227384 -6.303298 11.790000
281 10 30 1.500000 -5.872702 -6.864045 13.210000
282 10 17 -0.780000 -6.060203 -8.349140 13.020000
283 10 17 -0.780000 -6.676364 -6.211619 14.300000
284 10 16 -0.570000 -4.382924 -6.498112 13.280000
285 10 29 -0.080000 -3.386777 -7.330237 12.580000
286 10 6 0.090000 -3.262134 -6.898354 11.617120
287 10 6 0.090000 -3.805328 -8.308253 12.538270
288 10 26 0.160000 -2.099394 -7.284842 13.410000
289 10 5 0.090000 -1.343436 -7.875039 12.904420
290 10 19 -0.500000 -1.648902 -5.905776 13.510000
291 10 27 0.160000 -1.679282 -5.468503 14.900000
292 10 5 0.090000 -0.667507 -5.538846 15.306830
293 10 9 -0.020000 -2.168489 -4.082165 15.020000
294 10 23 0.250000 -3.397802 -3.573973 15.110000
295 10 3 0.160000 -4.329263 -4.182311 15.101320
296 10 13 -0.600000 -3.521044 -2.238902 15.210000
297 10 25 0.000000 -2.180771 -1.877326 15.190000
298 10 20 0.540000 -1.556719 -0.594677 15.240000
299 10 14 -0.510000 -2.315146 0.444699 15.350000
300 10 10 -0.340000 -0.250127 -0.538015 15.190000
301 10 2 0.260000 0.030205 0.381155 15.261470
302 10 21 0.750000 0.452025 -1.662746 15.070000
303 10 7 -0.680000 1.842403 -1.361048 15.010000
304 10 1 0.320000 2.044699 -0.429375 15.066870
305 10 1 0.350000 2.304686 -2.169690 14.923550
306 10 12 -0.740000 -0.060452 -2.911477 15.010000
307 10 24 0.260000 -1.353883 -3.004058 15.050000
308 10 26 0.140000 -2.349794 -7.783839 14.860000
309 10 5 0.090000 -3.023168 -8.514205 15.342360
310 10 28 -0.180000 -2.347680 -6.539947 15.770000
311 10 6 0.090000 -3.304671 -6.064867 15.660060
312 10 6 0.090000 -2.126577 -6.850650 16.763260
313 10 18 -0.660000 -1.333075 -8.786326 15.170000
314 10 4 0.430000 -1.542688 -9.063527 16.100560
315 11 4 0.430000 4.545097 6.959777 17.629950
316 11 18 -0.660000 4.841253 6.197856 17.140000
317 11 29 0.050000 5.940476 5.507603 17.840000
318 11 6 0.090000 5.568093 5.234521 18.801730
319 11 6 0.090000 6.746206 6.205852 17.899170
320 11 26 0.160000 6.295123 4.269200 17.010000
321 11 5 0.090000 7.091373 3.726628 17.511350
322 11 19 -0.500000 5.122763 3.414604 16.910000
323 11 27 0.160000 4.697503 3.308373 15.520000
324 11 5 0.090000 5.099471 2.373457 15.108870
325 11 8 -0.130000 3.227844 3.345237 15.400000
326 11 22 0.050000 2.547229 4.508538 15.310000
327 11 3 0.170000 3.074306 5.437203 15.315610
328 11 22 -0.130000 1.153604 4.450116 15.210000
329 11 3 0.070000 0.590424 5.360659 15.156440
330 11 21 0.650000 0.541353 3.147359 15.180000
331 11 7 -0.750000 -0.733388 3.091704 15.070000
332 11 1 0.370000 -1.088486 2.190856 15.053740
333 11 1 0.330000 -1.240278 3.962047 15.000050
334 11 11 -0.660000 1.240761 2.065216 15.260000
335 11 20 0.520000 2.599349 2.133665 15.370000
336 11 15 -0.490000 3.255523 1.093685 15.440000
337 11 26 0.010000 6.692321 4.661543 15.560000
338 11 5 0.090000 7.155708 5.557868 15.060980
339 11 28 -0.180000 5.509962 4.275150 14.650000
340 11 6 0.090000 4.785772 5.063827 14.730160
341 11 6 0.090000 5.880039 4.129163 13.660460
342 11 16 -0.570000 7.959925 4.004369 15.250000
343 12 30 1.500000 8.383624 3.493765 13.830000
344 12 17 -0.780000 9.853973 3.213167 14.020000
345 12 17 -0.780000 8.011476 4.459704 12.740000
346 12 16 -0.570000 7.575232 2.189983 13.760000
347 12 29 -0.080000 8.058802 0.985449 14.460000
348 12 6 0.090000 7.597025 0.983402 15.421730
349 12 6 0.090000 9.121072 1.076748 14.519170
350 12 26 0.160000 7.617803 -0.224896 13.630000
351 12 5 0.090000 7.943067 -1.131870 14.131350
352 12 19 -0.500000 6.167024 -0.227183 13.530000
353 12 27 0.160000 5.760541 -0.063164 12.140000
354 12 5 0.090000 5.536210 -1.055798 11.728870
355 12 8 -0.130000 4.593230 0.830503 12.020000
356 12 22 0.050000 4.726372 2.171688 11.930000
357 12 3 0.170000 5.698642 2.613186 11.935610
358 12 22 -0.130000 3.564566 2.943576 11.830000
359 12 3 0.070000 3.644148 4.011250 11.776440
360 12 21 0.650000 2.303503 2.249496 11.800000
361 12 7 -0.750000 1.239503 2.953744 11.690000
362 12 1 0.370000 0.422717 2.433664 11.673740
363 12 1 0.330000 1.340995 3.955809 11.620050
364 12 11 -0.660000 2.233269 0.962922 11.880000
365 12 20 0.520000 3.372623 0.219740 11.990000
366 12 15 -0.490000 3.292194 -1.007310 12.060000
367 12 26 0.010000 8.169756 -0.140951 12.180000
368 12 5 0.090000 9.071490 0.311819 11.680980
369 12 28 -0.180000 6.986091 0.241424 11.270000
370 12 6 0.090000 6.863782 1.305145 11.350160
371 12 6 0.090000 7.199681 -0.094209 10.280460
372 12 16 -0.570000 8.808992 -1.417695 11.870000
373 13 30 1.500000 8.851646 -2.079826 10.450000
374 13 17 -0.780000 9.876253 -3.171084 10.640000
375 13 17 -0.780000 9.118338 -1.079622 9.360000
376 13 16 -0.570000 7.431300 -2.659447 10.380000
377 13 29 -0.080000 7.114509 -3.918171 11.080000
378 13 6 0.090000 6.759816 -3.642033 12.042880
379 13 6 0.090000 8.027986 -4.463386 11.121730
380 13 26 0.160000 6.046311 -4.638149 10.250000
381 13 5 0.090000 5.781635 -5.559968 10.755580
382 13 19 -0.500000 4.871262 -3.787252 10.150000
383 13 27 0.160000 4.638817 -3.415633 8.760000
384 13 5 0.090000 3.861620 -4.067247 8.353170
385 13 9 -0.020000 4.219727 -2.006513 8.640000
386 13 23 0.250000 4.915556 -0.872806 8.550000
387 13 3 0.160000 6.026696 -0.817464 8.558680
388 13 13 -0.600000 4.230528 0.279730 8.450000
389 13 25 0.000000 2.933694 -0.215540 8.470000
390 13 20 0.540000 1.674904 0.455339 8.420000
391 13 14 -0.510000 1.677557 1.742004 8.310000
392 13 10 -0.340000 0.584543 -0.266815 8.470000
393 13 2 0.260000 -0.182524 0.312036 8.398530
394 13 21 0.750000 0.677589 -1.589456 8.590000
395 13 7 -0.680000 -0.624586 -2.162619 8.650000